ITEM: TIMESTEP
0
ITEM: NUMBER OF ATOMS
420
ITEM: BOX BOUNDS pp ss pp
0.0000000000000000e+00 2.5687134504920127e+01
-2.2245711031688635e-03 2.2247935602791809e+01
-3.2108918131150160e-01 3.2108918131150160e-01
ITEM: ATOMS id type xs ys zs
1 2 0 9.998e-05 0.5
3 2 0.05 9.998e-05 0.5
5 2 0.1 9.998e-05 0.5
7 2 0.15 9.998e-05 0.5
9 2 0.2 9.998e-05 0.5
11 2 0.25 9.998e-05 0.5
13 2 0.3 9.998e-05 0.5
15 2 0.35 9.998e-05 0.5
17 2 0.4 9.998e-05 0.5
19 2 0.45 9.998e-05 0.5
21 2 0.5 9.998e-05 0.5
23 2 0.55 9.998e-05 0.5
25 2 0.6 9.998e-05 0.5
27 2 0.65 9.998e-05 0.5
29 2 0.7 9.998e-05 0.5
31 2 0.75 9.998e-05 0.5
33 2 0.8 9.998e-05 0.5
35 2 0.85 9.998e-05 0.5
37 2 0.9 9.998e-05 0.5
39 2 0.95 9.998e-05 0.5
2 2 0.025 0.05009 0.5
4 2 0.075 0.05009 0.5
6 2 0.125 0.05009 0.5
8 2 0.175 0.05009 0.5
10 2 0.225 0.05009 0.5
12 2 0.275 0.05009 0.5
14 2 0.325 0.05009 0.5
16 2 0.375 0.05009 0.5
18 2 0.425 0.05009 0.5
20 2 0.475 0.05009 0.5
22 2 0.525 0.05009 0.5
24 2 0.575 0.05009 0.5
26 2 0.625 0.05009 0.5
28 2 0.675 0.05009 0.5
30 2 0.725 0.05009 0.5
32 2 0.775 0.05009 0.5
34 2 0.825 0.05009 0.5
36 2 0.875 0.05009 0.5
38 2 0.925 0.05009 0.5
40 2 0.975 0.05009 0.5
41 2 0 0.10008 0.5
43 2 0.05 0.10008 0.5
45 2 0.1 0.10008 0.5
47 2 0.15 0.10008 0.5
49 2 0.2 0.10008 0.5
51 2 0.25 0.10008 0.5
53 2 0.3 0.10008 0.5
55 2 0.35 0.10008 0.5
57 2 0.4 0.10008 0.5
59 2 0.45 0.10008 0.5
61 2 0.5 0.10008 0.5
63 2 0.55 0.10008 0.5
65 2 0.6 0.10008 0.5
67 2 0.65 0.10008 0.5
69 2 0.7 0.10008 0.5
71 2 0.75 0.10008 0.5
73 2 0.8 0.10008 0.5
75 2 0.85 0.10008 0.5
77 2 0.9 0.10008 0.5
79 2 0.95 0.10008 0.5
42 1 0.025 0.15007 0.5
44 1 0.075 0.15007 0.5
46 1 0.125 0.15007 0.5
48 1 0.175 0.15007 0.5
50 1 0.225 0.15007 0.5
52 1 0.275 0.15007 0.5
54 1 0.325 0.15007 0.5
56 1 0.375 0.15007 0.5
58 1 0.425 0.15007 0.5
60 1 0.475 0.15007 0.5
62 1 0.525 0.15007 0.5
64 1 0.575 0.15007 0.5
66 1 0.625 0.15007 0.5
68 1 0.675 0.15007 0.5
70 1 0.725 0.15007 0.5
72 1 0.775 0.15007 0.5
74 1 0.825 0.15007 0.5
76 1 0.875 0.15007 0.5
78 1 0.925 0.15007 0.5
80 1 0.975 0.15007 0.5
81 1 0 0.20006 0.5
83 1 0.05 0.20006 0.5
85 1 0.1 0.20006 0.5
87 1 0.15 0.20006 0.5
89 1 0.2 0.20006 0.5
91 1 0.25 0.20006 0.5
93 1 0.3 0.20006 0.5
95 1 0.35 0.20006 0.5
97 1 0.4 0.20006 0.5
99 1 0.45 0.20006 0.5
101 1 0.5 0.20006 0.5
103 1 0.55 0.20006 0.5
105 1 0.6 0.20006 0.5
107 1 0.65 0.20006 0.5
109 1 0.7 0.20006 0.5
111 1 0.75 0.20006 0.5
113 1 0.8 0.20006 0.5
115 1 0.85 0.20006 0.5
117 1 0.9 0.20006 0.5
119 1 0.95 0.20006 0.5
82 1 0.025 0.25005 0.5
84 1 0.075 0.25005 0.5
86 1 0.125 0.25005 0.5
88 1 0.175 0.25005 0.5
90 1 0.225 0.25005 0.5
92 1 0.275 0.25005 0.5
94 1 0.325 0.25005 0.5
96 1 0.375 0.25005 0.5
98 1 0.425 0.25005 0.5
100 1 0.475 0.25005 0.5
102 1 0.525 0.25005 0.5
104 1 0.575 0.25005 0.5
106 1 0.625 0.25005 0.5
108 1 0.675 0.25005 0.5
110 1 0.725 0.25005 0.5
112 1 0.775 0.25005 0.5
114 1 0.825 0.25005 0.5
116 1 0.875 0.25005 0.5
118 1 0.925 0.25005 0.5
120 1 0.975 0.25005 0.5
121 1 0 0.30004 0.5
123 1 0.05 0.30004 0.5
125 1 0.1 0.30004 0.5
127 1 0.15 0.30004 0.5
129 1 0.2 0.30004 0.5
131 1 0.25 0.30004 0.5
133 1 0.3 0.30004 0.5
135 1 0.35 0.30004 0.5
137 1 0.4 0.30004 0.5
139 1 0.45 0.30004 0.5
141 1 0.5 0.30004 0.5
143 1 0.55 0.30004 0.5
145 1 0.6 0.30004 0.5
147 1 0.65 0.30004 0.5
149 1 0.7 0.30004 0.5
151 1 0.75 0.30004 0.5
153 1 0.8 0.30004 0.5
155 1 0.85 0.30004 0.5
157 1 0.9 0.30004 0.5
159 1 0.95 0.30004 0.5
122 1 0.025 0.35003 0.5
124 1 0.075 0.35003 0.5
126 1 0.125 0.35003 0.5
128 1 0.175 0.35003 0.5
130 1 0.225 0.35003 0.5
132 1 0.275 0.35003 0.5
134 1 0.325 0.35003 0.5
136 1 0.375 0.35003 0.5
138 1 0.425 0.35003 0.5
140 1 0.475 0.35003 0.5
142 1 0.525 0.35003 0.5
144 1 0.575 0.35003 0.5
146 1 0.625 0.35003 0.5
148 1 0.675 0.35003 0.5
150 1 0.725 0.35003 0.5
152 1 0.775 0.35003 0.5
154 1 0.825 0.35003 0.5
156 1 0.875 0.35003 0.5
158 1 0.925 0.35003 0.5
160 1 0.975 0.35003 0.5
161 1 0 0.40002 0.5
163 1 0.05 0.40002 0.5
165 1 0.1 0.40002 0.5
167 1 0.15 0.40002 0.5
169 1 0.2 0.40002 0.5
171 1 0.25 0.40002 0.5
173 1 0.3 0.40002 0.5
175 1 0.35 0.40002 0.5
177 1 0.4 0.40002 0.5
179 1 0.45 0.40002 0.5
181 1 0.5 0.40002 0.5
183 1 0.55 0.40002 0.5
185 1 0.6 0.40002 0.5
187 1 0.65 0.40002 0.5
189 1 0.7 0.40002 0.5
191 1 0.75 0.40002 0.5
193 1 0.8 0.40002 0.5
195 1 0.85 0.40002 0.5
197 1 0.9 0.40002 0.5
199 1 0.95 0.40002 0.5
162 1 0.025 0.45001 0.5
164 1 0.075 0.45001 0.5
166 1 0.125 0.45001 0.5
168 1 0.175 0.45001 0.5
170 1 0.225 0.45001 0.5
172 1 0.275 0.45001 0.5
174 1 0.325 0.45001 0.5
176 1 0.375 0.45001 0.5
178 1 0.425 0.45001 0.5
180 1 0.475 0.45001 0.5
182 1 0.525 0.45001 0.5
184 1 0.575 0.45001 0.5
186 1 0.625 0.45001 0.5
188 1 0.675 0.45001 0.5
190 1 0.725 0.45001 0.5
192 1 0.775 0.45001 0.5
194 1 0.825 0.45001 0.5
196 1 0.875 0.45001 0.5
198 1 0.925 0.45001 0.5
200 1 0.975 0.45001 0.5
201 1 0 0.5 0.5
203 1 0.05 0.5 0.5
205 1 0.1 0.5 0.5
207 1 0.15 0.5 0.5
209 1 0.2 0.5 0.5
211 1 0.25 0.5 0.5
213 1 0.3 0.5 0.5
215 1 0.35 0.5 0.5
217 1 0.4 0.5 0.5
219 1 0.45 0.5 0.5
221 1 0.5 0.5 0.5
223 1 0.55 0.5 0.5
225 1 0.6 0.5 0.5
227 1 0.65 0.5 0.5
229 1 0.7 0.5 0.5
231 1 0.75 0.5 0.5
233 1 0.8 0.5 0.5
235 1 0.85 0.5 0.5
237 1 0.9 0.5 0.5
239 1 0.95 0.5 0.5
202 1 0.025 0.54999 0.5
204 1 0.075 0.54999 0.5
206 1 0.125 0.54999 0.5
208 1 0.175 0.54999 0.5
210 1 0.225 0.54999 0.5
212 1 0.275 0.54999 0.5
214 1 0.325 0.54999 0.5
216 1 0.375 0.54999 0.5
218 1 0.425 0.54999 0.5
220 1 0.475 0.54999 0.5
222 1 0.525 0.54999 0.5
224 1 0.575 0.54999 0.5
226 1 0.625 0.54999 0.5
228 1 0.675 0.54999 0.5
230 1 0.725 0.54999 0.5
232 1 0.775 0.54999 0.5
234 1 0.825 0.54999 0.5
236 1 0.875 0.54999 0.5
238 1 0.925 0.54999 0.5
240 1 0.975 0.54999 0.5
241 1 0 0.59998 0.5
243 1 0.05 0.59998 0.5
245 1 0.1 0.59998 0.5
247 1 0.15 0.59998 0.5
249 1 0.2 0.59998 0.5
251 1 0.25 0.59998 0.5
253 1 0.3 0.59998 0.5
255 1 0.35 0.59998 0.5
257 1 0.4 0.59998 0.5
259 1 0.45 0.59998 0.5
261 1 0.5 0.59998 0.5
263 1 0.55 0.59998 0.5
265 1 0.6 0.59998 0.5
267 1 0.65 0.59998 0.5
269 1 0.7 0.59998 0.5
271 1 0.75 0.59998 0.5
273 1 0.8 0.59998 0.5
275 1 0.85 0.59998 0.5
277 1 0.9 0.59998 0.5
279 1 0.95 0.59998 0.5
242 1 0.025 0.64997 0.5
244 1 0.075 0.64997 0.5
246 1 0.125 0.64997 0.5
248 1 0.175 0.64997 0.5
250 1 0.225 0.64997 0.5
252 1 0.275 0.64997 0.5
254 1 0.325 0.64997 0.5
256 1 0.375 0.64997 0.5
258 1 0.425 0.64997 0.5
260 1 0.475 0.64997 0.5
262 1 0.525 0.64997 0.5
264 1 0.575 0.64997 0.5
266 1 0.625 0.64997 0.5
268 1 0.675 0.64997 0.5
270 1 0.725 0.64997 0.5
272 1 0.775 0.64997 0.5
274 1 0.825 0.64997 0.5
276 1 0.875 0.64997 0.5
278 1 0.925 0.64997 0.5
280 1 0.975 0.64997 0.5
281 1 0 0.69996 0.5
283 1 0.05 0.69996 0.5
285 1 0.1 0.69996 0.5
287 1 0.15 0.69996 0.5
289 1 0.2 0.69996 0.5
291 1 0.25 0.69996 0.5
293 1 0.3 0.69996 0.5
295 1 0.35 0.69996 0.5
297 1 0.4 0.69996 0.5
299 1 0.45 0.69996 0.5
301 1 0.5 0.69996 0.5
303 1 0.55 0.69996 0.5
305 1 0.6 0.69996 0.5
307 1 0.65 0.69996 0.5
309 1 0.7 0.69996 0.5
311 1 0.75 0.69996 0.5
313 1 0.8 0.69996 0.5
315 1 0.85 0.69996 0.5
317 1 0.9 0.69996 0.5
319 1 0.95 0.69996 0.5
282 1 0.025 0.74995 0.5
284 1 0.075 0.74995 0.5
286 1 0.125 0.74995 0.5
288 1 0.175 0.74995 0.5
290 1 0.225 0.74995 0.5
292 1 0.275 0.74995 0.5
294 1 0.325 0.74995 0.5
296 1 0.375 0.74995 0.5
298 1 0.425 0.74995 0.5
300 1 0.475 0.74995 0.5
302 1 0.525 0.74995 0.5
304 1 0.575 0.74995 0.5
306 1 0.625 0.74995 0.5
308 1 0.675 0.74995 0.5
310 1 0.725 0.74995 0.5
312 1 0.775 0.74995 0.5
314 1 0.825 0.74995 0.5
316 1 0.875 0.74995 0.5
318 1 0.925 0.74995 0.5
320 1 0.975 0.74995 0.5
321 1 0 0.79994 0.5
323 1 0.05 0.79994 0.5
325 1 0.1 0.79994 0.5
327 1 0.15 0.79994 0.5
329 1 0.2 0.79994 0.5
331 1 0.25 0.79994 0.5
333 1 0.3 0.79994 0.5
335 1 0.35 0.79994 0.5
337 1 0.4 0.79994 0.5
339 1 0.45 0.79994 0.5
341 1 0.5 0.79994 0.5
343 1 0.55 0.79994 0.5
345 1 0.6 0.79994 0.5
347 1 0.65 0.79994 0.5
349 1 0.7 0.79994 0.5
351 1 0.75 0.79994 0.5
353 1 0.8 0.79994 0.5
355 1 0.85 0.79994 0.5
357 1 0.9 0.79994 0.5
359 1 0.95 0.79994 0.5
322 1 0.025 0.84993 0.5
324 1 0.075 0.84993 0.5
326 1 0.125 0.84993 0.5
328 1 0.175 0.84993 0.5
330 1 0.225 0.84993 0.5
332 1 0.275 0.84993 0.5
334 1 0.325 0.84993 0.5
336 1 0.375 0.84993 0.5
338 1 0.425 0.84993 0.5
340 1 0.475 0.84993 0.5
342 1 0.525 0.84993 0.5
344 1 0.575 0.84993 0.5
346 1 0.625 0.84993 0.5
348 1 0.675 0.84993 0.5
350 1 0.725 0.84993 0.5
352 1 0.775 0.84993 0.5
354 1 0.825 0.84993 0.5
356 1 0.875 0.84993 0.5
358 1 0.925 0.84993 0.5
360 1 0.975 0.84993 0.5
361 3 0 0.89992 0.5
363 3 0.05 0.89992 0.5
365 3 0.1 0.89992 0.5
367 3 0.15 0.89992 0.5
369 3 0.2 0.89992 0.5
371 3 0.25 0.89992 0.5
373 3 0.3 0.89992 0.5
375 3 0.35 0.89992 0.5
377 3 0.4 0.89992 0.5
379 3 0.45 0.89992 0.5
381 3 0.5 0.89992 0.5
383 3 0.55 0.89992 0.5
385 3 0.6 0.89992 0.5
387 3 0.65 0.89992 0.5
389 3 0.7 0.89992 0.5
391 3 0.75 0.89992 0.5
393 3 0.8 0.89992 0.5
395 3 0.85 0.89992 0.5
397 3 0.9 0.89992 0.5
399 3 0.95 0.89992 0.5
362 3 0.025 0.94991 0.5
364 3 0.075 0.94991 0.5
366 3 0.125 0.94991 0.5
368 3 0.175 0.94991 0.5
370 3 0.225 0.94991 0.5
372 3 0.275 0.94991 0.5
374 3 0.325 0.94991 0.5
376 3 0.375 0.94991 0.5
378 3 0.425 0.94991 0.5
380 3 0.475 0.94991 0.5
382 3 0.525 0.94991 0.5
384 3 0.575 0.94991 0.5
386 3 0.625 0.94991 0.5
388 3 0.675 0.94991 0.5
390 3 0.725 0.94991 0.5
392 3 0.775 0.94991 0.5
394 3 0.825 0.94991 0.5
396 3 0.875 0.94991 0.5
398 3 0.925 0.94991 0.5
400 3 0.975 0.94991 0.5
401 3 0 0.9999 0.5
402 3 0.05 0.9999 0.5
403 3 0.1 0.9999 0.5
404 3 0.15 0.9999 0.5
405 3 0.2 0.9999 0.5
406 3 0.25 0.9999 0.5
407 3 0.3 0.9999 0.5
408 3 0.35 0.9999 0.5
409 3 0.4 0.9999 0.5
410 3 0.45 0.9999 0.5
411 3 0.5 0.9999 0.5
412 3 0.55 0.9999 0.5
413 3 0.6 0.9999 0.5
414 3 0.65 0.9999 0.5
415 3 0.7 0.9999 0.5
416 3 0.75 0.9999 0.5
417 3 0.8 0.9999 0.5
418 3 0.85 0.9999 0.5
419 3 0.9 0.9999 0.5
420 3 0.95 0.9999 0.5
ITEM: TIMESTEP
500
ITEM: NUMBER OF ATOMS
420
ITEM: BOX BOUNDS pp ss pp
0.0000000000000000e+00 2.5687134504920127e+01
-2.2245711031688635e-03 2.2247935602791809e+01
-3.2108918131150160e-01 3.2108918131150160e-01
ITEM: ATOMS id type xs ys zs
1 2 0 9.998e-05 0.5
3 2 0.05 9.998e-05 0.5
5 2 0.1 9.998e-05 0.5
7 2 0.15 9.998e-05 0.5
9 2 0.2 9.998e-05 0.5
11 2 0.25 9.998e-05 0.5
13 2 0.3 9.998e-05 0.5
15 2 0.35 9.998e-05 0.5
17 2 0.4 9.998e-05 0.5
19 2 0.45 9.998e-05 0.5
21 2 0.5 9.998e-05 0.5
23 2 0.55 9.998e-05 0.5
25 2 0.6 9.998e-05 0.5
27 2 0.65 9.998e-05 0.5
29 2 0.7 9.998e-05 0.5
31 2 0.75 9.998e-05 0.5
33 2 0.8 9.998e-05 0.5
35 2 0.85 9.998e-05 0.5
37 2 0.9 9.998e-05 0.5
39 2 0.95 9.998e-05 0.5
2 2 0.025 0.05009 0.5
4 2 0.075 0.05009 0.5
6 2 0.125 0.05009 0.5
8 2 0.175 0.05009 0.5
10 2 0.225 0.05009 0.5
12 2 0.275 0.05009 0.5
14 2 0.325 0.05009 0.5
16 2 0.375 0.05009 0.5
18 2 0.425 0.05009 0.5
20 2 0.475 0.05009 0.5
22 2 0.525 0.05009 0.5
24 2 0.575 0.05009 0.5
26 2 0.625 0.05009 0.5
28 2 0.675 0.05009 0.5
30 2 0.725 0.05009 0.5
32 2 0.775 0.05009 0.5
34 2 0.825 0.05009 0.5
36 2 0.875 0.05009 0.5
38 2 0.925 0.05009 0.5
40 2 0.975 0.05009 0.5
41 2 0 0.10008 0.5
43 2 0.05 0.10008 0.5
45 2 0.1 0.10008 0.5
47 2 0.15 0.10008 0.5
49 2 0.2 0.10008 0.5
51 2 0.25 0.10008 0.5
53 2 0.3 0.10008 0.5
55 2 0.35 0.10008 0.5
57 2 0.4 0.10008 0.5
59 2 0.45 0.10008 0.5
61 2 0.5 0.10008 0.5
63 2 0.55 0.10008 0.5
65 2 0.6 0.10008 0.5
67 2 0.65 0.10008 0.5
69 2 0.7 0.10008 0.5
71 2 0.75 0.10008 0.5
73 2 0.8 0.10008 0.5
75 2 0.85 0.10008 0.5
77 2 0.9 0.10008 0.5
79 2 0.95 0.10008 0.5
42 1 0.0345802 0.147369 0.5
44 1 0.0844102 0.141384 0.5
46 1 0.133708 0.144097 0.5
48 1 0.173247 0.192464 0.5
50 1 0.199465 0.156634 0.5
52 1 0.286645 0.144321 0.5
54 1 0.326328 0.134885 0.5
56 1 0.369245 0.184506 0.5
58 1 0.426612 0.153776 0.5
60 1 0.482752 0.159781 0.5
62 1 0.524843 0.144759 0.5
64 1 0.576087 0.13915 0.5
66 1 0.618295 0.144163 0.5
68 1 0.672408 0.137639 0.5
70 1 0.720612 0.146372 0.5
72 1 0.772376 0.150683 0.5
74 1 0.823088 0.14135 0.5
76 1 0.866635 0.143724 0.5
78 1 0.914872 0.145994 0.5
80 1 0.962993 0.143918 0.5
81 1 0.994574 0.182355 0.5
83 1 0.0481143 0.193562 0.5
85 1 0.0926552 0.186878 0.5
87 1 0.131406 0.194569 0.5
89 1 0.191963 0.239065 0.5
91 1 0.231759 0.184236 0.5
93 1 0.285567 0.189846 0.5
95 1 0.321897 0.187406 0.5
97 1 0.423344 0.21137 0.5
99 1 0.464272 0.211306 0.5
101 1 0.515483 0.192154 0.5
103 1 0.572712 0.186157 0.5
105 1 0.608815 0.199829 0.5
107 1 0.650779 0.181452 0.5
109 1 0.695566 0.196891 0.5
111 1 0.754964 0.196795 0.5
113 1 0.800961 0.203355 0.5
115 1 0.842024 0.191485 0.5
117 1 0.892438 0.219422 0.5
119 1 0.937669 0.19191 0.5
82 1 0.033525 0.238224 0.5
84 1 0.07489 0.235923 0.5
86 1 0.0991663 0.277943 0.5
88 1 0.145551 0.235754 0.5
90 1 0.2307 0.249519 0.5
92 1 0.26627 0.231805 0.5
94 1 0.312155 0.236523 0.5
96 1 0.384335 0.228052 0.5
98 1 0.414712 0.265403 0.5
100 1 0.499421 0.239927 0.5
102 1 0.539393 0.237695 0.5
104 1 0.583952 0.241306 0.5
106 1 0.629029 0.271785 0.5
108 1 0.682094 0.242924 0.5
110 1 0.726984 0.244294 0.5
112 1 0.773772 0.256542 0.5
114 1 0.827419 0.243073 0.5
116 1 0.866904 0.262329 0.5
118 1 0.9142 0.28752 0.5
120 1 0.951829 0.247172 0.5
121 1 0.993503 0.251304 0.5
123 1 0.0269315 0.294109 0.5
125 1 0.0684241 0.313291 0.5
127 1 0.146892 0.282767 0.5
129 1 0.189659 0.297933 0.5
131 1 0.253666 0.338448 0.5
133 1 0.276029 0.280676 0.5
135 1 0.336289 0.274184 0.5
137 1 0.380938 0.293696 0.5
139 1 0.431189 0.310992 0.5
141 1 0.46028 0.272812 0.5
143 1 0.498145 0.293703 0.5
145 1 0.553195 0.288325 0.5
147 1 0.663442 0.291846 0.5
149 1 0.706224 0.328266 0.5
151 1 0.739038 0.287609 0.5
153 1 0.786782 0.312387 0.5
155 1 0.834994 0.291677 0.5
157 1 0.874575 0.308525 0.5
159 1 0.967298 0.300762 0.5
122 1 0.0375258 0.359462 0.5
124 1 0.089131 0.385578 0.5
126 1 0.109417 0.321733 0.5
128 1 0.153052 0.330799 0.5
130 1 0.202759 0.345272 0.5
132 1 0.283588 0.390359 0.5
134 1 0.289356 0.326619 0.5
136 1 0.346392 0.323866 0.5
138 1 0.397722 0.341601 0.5
140 1 0.472802 0.336972 0.5
142 1 0.519796 0.337 0.5
144 1 0.574245 0.351253 0.5
146 1 0.598689 0.305653 0.5
148 1 0.653559 0.34373 0.5
150 1 0.731926 0.382807 0.5
152 1 0.753181 0.339418 0.5
154 1 0.806052 0.380381 0.5
156 1 0.846868 0.35445 0.5
158 1 0.913141 0.335733 0.5
160 1 0.997527 0.340065 0.5
161 1 0.990343 0.394388 0.5
163 1 0.0419589 0.406525 0.5
165 1 0.0792543 0.434418 0.5
167 1 0.135599 0.373758 0.5
169 1 0.223289 0.386843 0.5
171 1 0.298395 0.444693 0.5
173 1 0.323071 0.376902 0.5
175 1 0.373175 0.385498 0.5
177 1 0.430942 0.392607 0.5
179 1 0.503237 0.378563 0.5
181 1 0.514397 0.432444 0.5
183 1 0.543026 0.387212 0.5
185 1 0.596155 0.419918 0.5
187 1 0.613637 0.374009 0.5
189 1 0.687338 0.382535 0.5
191 1 0.725896 0.471386 0.5
193 1 0.769877 0.401388 0.5
195 1 0.857125 0.398898 0.5
197 1 0.909418 0.397711 0.5
199 1 0.953792 0.362409 0.5
162 1 0.0210226 0.450149 0.5
164 1 0.0807016 0.491668 0.5
166 1 0.130402 0.48218 0.5
168 1 0.120132 0.424431 0.5
170 1 0.242594 0.429387 0.5
172 1 0.273983 0.48736 0.5
174 1 0.340494 0.421603 0.5
176 1 0.388003 0.431458 0.5
178 1 0.432929 0.448978 0.5
180 1 0.468699 0.414623 0.5
182 1 0.509638 0.481404 0.5
184 1 0.55382 0.449511 0.5
186 1 0.655421 0.471684 0.5
188 1 0.644616 0.410082 0.5
190 1 0.683866 0.431357 0.5
192 1 0.804267 0.431076 0.5
194 1 0.844783 0.446238 0.5
196 1 0.882977 0.448917 0.5
198 1 0.946818 0.418442 0.5
200 1 0.977632 0.455445 0.5
201 1 0.997944 0.508004 0.5
203 1 0.034608 0.50763 0.5
205 1 0.106392 0.521703 0.5
207 1 0.175164 0.501002 0.5
209 1 0.163786 0.439598 0.5
211 1 0.2092 0.47765 0.5
213 1 0.34176 0.471335 0.5
215 1 0.374019 0.530186 0.5
217 1 0.392409 0.490981 0.5
219 1 0.449073 0.496094 0.5
221 1 0.543316 0.513865 0.5
223 1 0.589749 0.496649 0.5
225 1 0.615018 0.467383 0.5
227 1 0.687124 0.495733 0.5
229 1 0.72357 0.517674 0.5
231 1 0.774955 0.463371 0.5
233 1 0.815081 0.47999 0.5
235 1 0.852462 0.504832 0.5
237 1 0.931235 0.463047 0.5
239 1 0.958535 0.494596 0.5
202 1 0.969415 0.546332 0.5
204 1 0.0611066 0.549804 0.5
206 1 0.134056 0.559371 0.5
208 1 0.177573 0.554852 0.5
210 1 0.214382 0.533335 0.5
212 1 0.275571 0.539796 0.5
214 1 0.332532 0.521883 0.5
216 1 0.380736 0.578007 0.5
218 1 0.42146 0.545642 0.5
220 1 0.492977 0.533836 0.5
222 1 0.548452 0.571398 0.5
224 1 0.603704 0.553316 0.5
226 1 0.648735 0.515574 0.5
228 1 0.695335 0.556494 0.5
230 1 0.744908 0.573333 0.5
232 1 0.763326 0.519359 0.5
234 1 0.810021 0.539946 0.5
236 1 0.880778 0.554899 0.5
238 1 0.908924 0.515811 0.5
240 1 0.929694 0.553076 0.5
241 1 0.972865 0.602801 0.5
243 1 0.0217064 0.57751 0.5
245 1 0.0932113 0.579352 0.5
247 1 0.135466 0.604421 0.5
249 1 0.22365 0.592503 0.5
251 1 0.268193 0.587718 0.5
253 1 0.311425 0.560812 0.5
255 1 0.343823 0.603766 0.5
257 1 0.441385 0.650566 0.5
259 1 0.428605 0.60281 0.5
261 1 0.4814 0.583944 0.5
263 1 0.58478 0.624306 0.5
265 1 0.618292 0.604997 0.5
267 1 0.652866 0.569391 0.5
269 1 0.68607 0.608176 0.5
271 1 0.7862 0.59285 0.5
273 1 0.828135 0.582151 0.5
275 1 0.842876 0.628578 0.5
277 1 0.890711 0.603011 0.5
279 1 0.930694 0.602072 0.5
242 1 0.011552 0.626681 0.5
244 1 0.0544301 0.618114 0.5
246 1 0.0956843 0.651788 0.5
248 1 0.183905 0.604821 0.5
250 1 0.216993 0.652737 0.5
252 1 0.260434 0.635355 0.5
254 1 0.31242 0.646925 0.5
256 1 0.394447 0.631218 0.5
258 1 0.480568 0.677925 0.5
260 1 0.477107 0.628225 0.5
262 1 0.516619 0.608819 0.5
264 1 0.544542 0.64395 0.5
266 1 0.613558 0.665307 0.5
268 1 0.650796 0.62987 0.5
270 1 0.730174 0.61756 0.5
272 1 0.765369 0.635383 0.5
274 1 0.805092 0.647991 0.5
276 1 0.891841 0.654582 0.5
278 1 0.931226 0.675206 0.5
280 1 0.966493 0.650757 0.5
281 1 0.991362 0.704566 0.5
283 1 0.0306098 0.669251 0.5
285 1 0.0672618 0.683945 0.5
287 1 0.13019 0.706831 0.5
289 1 0.153422 0.64713 0.5
291 1 0.248696 0.692245 0.5
293 1 0.292364 0.688707 0.5
295 1 0.347013 0.664069 0.5
297 1 0.391598 0.680065 0.5
299 1 0.486451 0.734233 0.5
301 1 0.533104 0.756452 0.5
303 1 0.528422 0.686875 0.5
305 1 0.627948 0.724585 0.5
307 1 0.659481 0.677494 0.5
309 1 0.699246 0.652718 0.5
311 1 0.745321 0.681444 0.5
313 1 0.821534 0.692688 0.5
315 1 0.857726 0.693905 0.5
317 1 0.898538 0.707324 0.5
319 1 0.933081 0.73378 0.5
282 1 0.0417938 0.734617 0.5
284 1 0.0859568 0.731846 0.5
286 1 0.13948 0.754193 0.5
288 1 0.171222 0.686621 0.5
290 1 0.211577 0.734113 0.5
292 1 0.266466 0.738895 0.5
294 1 0.311869 0.748156 0.5
296 1 0.364752 0.728524 0.5
298 1 0.448837 0.709987 0.5
300 1 0.454428 0.755906 0.5
302 1 0.566695 0.706474 0.5
304 1 0.591128 0.75657 0.5
306 1 0.677086 0.767048 0.5
308 1 0.686873 0.717589 0.5
310 1 0.726387 0.730738 0.5
312 1 0.770621 0.721461 0.5
314 1 0.824809 0.773015 0.5
316 1 0.879758 0.751448 0.5
318 1 0.913715 0.788558 0.5
320 1 0.970165 0.75625 0.5
321 1 0.0110359 0.788421 0.5
323 1 0.0522033 0.787389 0.5
325 1 0.0958472 0.786905 0.5
327 1 0.192393 0.777574 0.5
329 1 0.233399 0.771486 0.5
331 1 0.282976 0.816254 0.5
333 1 0.319274 0.793477 0.5
335 1 0.360912 0.776842 0.5
337 1 0.404023 0.762348 0.5
339 1 0.426596 0.797939 0.5
341 1 0.490827 0.779976 0.5
343 1 0.568557 0.795224 0.5
345 1 0.626332 0.797641 0.5
347 1 0.663725 0.812248 0.5
349 1 0.717291 0.779299 0.5
351 1 0.755785 0.763834 0.5
353 1 0.792969 0.800212 0.5
355 1 0.824758 0.858354 0.5
357 1 0.874184 0.805011 0.5
359 1 0.976205 0.806578 0.5
322 1 0.0922159 0.856083 0.5
324 1 0.134501 0.85853 0.5
326 1 0.149892 0.800755 0.5
328 1 0.182735 0.834282 0.5
330 1 0.233341 0.825168 0.5
332 1 0.325845 0.842039 0.5
334 1 0.363584 0.853535 0.5
336 1 0.406591 0.833235 0.5
338 1 0.453623 0.84669 0.5
340 1 0.495665 0.852652 0.5
342 1 0.526608 0.816191 0.5
344 1 0.576081 0.854987 0.5
346 1 0.630038 0.849179 0.5
348 1 0.678925 0.855995 0.5
350 1 0.706 0.825911 0.5
352 1 0.743883 0.810993 0.5
354 1 0.77858 0.85401 0.5
356 1 0.886074 0.853007 0.5
358 1 0.942511 0.832135 0.5
360 1 0.00140847 0.845924 0.5
361 3 0.225 0.89992 0.5
363 3 0.275 0.89992 0.5
365 3 0.325 0.89992 0.5
367 3 0.375 0.89992 0.5
369 3 0.425 0.89992 0.5
371 3 0.475 0.89992 0.5
373 3 0.525 0.89992 0.5
375 3 0.575 0.89992 0.5
377 3 0.625 0.89992 0.5
379 3 0.675 0.89992 0.5
381 3 0.725 0.89992 0.5
383 3 0.775 0.89992 0.5
385 3 0.825 0.89992 0.5
387 3 0.875 0.89992 0.5
389 3 0.925 0.89992 0.5
391 3 0.975 0.89992 0.5
393 3 0.025 0.89992 0.5
395 3 0.075 0.89992 0.5
397 3 0.125 0.89992 0.5
399 3 0.175 0.89992 0.5
362 3 0.25 0.94991 0.5
364 3 0.3 0.94991 0.5
366 3 0.35 0.94991 0.5
368 3 0.4 0.94991 0.5
370 3 0.45 0.94991 0.5
372 3 0.5 0.94991 0.5
374 3 0.55 0.94991 0.5
376 3 0.6 0.94991 0.5
378 3 0.65 0.94991 0.5
380 3 0.7 0.94991 0.5
382 3 0.75 0.94991 0.5
384 3 0.8 0.94991 0.5
386 3 0.85 0.94991 0.5
388 3 0.9 0.94991 0.5
390 3 0.95 0.94991 0.5
392 3 1 0.94991 0.5
394 3 0.05 0.94991 0.5
396 3 0.1 0.94991 0.5
398 3 0.15 0.94991 0.5
400 3 0.2 0.94991 0.5
401 3 0.225 0.9999 0.5
402 3 0.275 0.9999 0.5
403 3 0.325 0.9999 0.5
404 3 0.375 0.9999 0.5
405 3 0.425 0.9999 0.5
406 3 0.475 0.9999 0.5
407 3 0.525 0.9999 0.5
408 3 0.575 0.9999 0.5
409 3 0.625 0.9999 0.5
410 3 0.675 0.9999 0.5
411 3 0.725 0.9999 0.5
412 3 0.775 0.9999 0.5
413 3 0.825 0.9999 0.5
414 3 0.875 0.9999 0.5
415 3 0.925 0.9999 0.5
416 3 0.975 0.9999 0.5
417 3 0.025 0.9999 0.5
418 3 0.075 0.9999 0.5
419 3 0.125 0.9999 0.5
420 3 0.175 0.9999 0.5
ITEM: TIMESTEP
1000
ITEM: NUMBER OF ATOMS
420
ITEM: BOX BOUNDS pp ss pp
0.0000000000000000e+00 2.5687134504920127e+01
-2.2245711031688635e-03 2.2247935602791809e+01
-3.2108918131150160e-01 3.2108918131150160e-01
ITEM: ATOMS id type xs ys zs
1 2 0 9.998e-05 0.5
3 2 0.05 9.998e-05 0.5
5 2 0.1 9.998e-05 0.5
7 2 0.15 9.998e-05 0.5
9 2 0.2 9.998e-05 0.5
11 2 0.25 9.998e-05 0.5
13 2 0.3 9.998e-05 0.5
15 2 0.35 9.998e-05 0.5
17 2 0.4 9.998e-05 0.5
19 2 0.45 9.998e-05 0.5
21 2 0.5 9.998e-05 0.5
23 2 0.55 9.998e-05 0.5
25 2 0.6 9.998e-05 0.5
27 2 0.65 9.998e-05 0.5
29 2 0.7 9.998e-05 0.5
31 2 0.75 9.998e-05 0.5
33 2 0.8 9.998e-05 0.5
35 2 0.85 9.998e-05 0.5
37 2 0.9 9.998e-05 0.5
39 2 0.95 9.998e-05 0.5
2 2 0.025 0.05009 0.5
4 2 0.075 0.05009 0.5
6 2 0.125 0.05009 0.5
8 2 0.175 0.05009 0.5
10 2 0.225 0.05009 0.5
12 2 0.275 0.05009 0.5
14 2 0.325 0.05009 0.5
16 2 0.375 0.05009 0.5
18 2 0.425 0.05009 0.5
20 2 0.475 0.05009 0.5
22 2 0.525 0.05009 0.5
24 2 0.575 0.05009 0.5
26 2 0.625 0.05009 0.5
28 2 0.675 0.05009 0.5
30 2 0.725 0.05009 0.5
32 2 0.775 0.05009 0.5
34 2 0.825 0.05009 0.5
36 2 0.875 0.05009 0.5
38 2 0.925 0.05009 0.5
40 2 0.975 0.05009 0.5
41 2 0 0.10008 0.5
43 2 0.05 0.10008 0.5
45 2 0.1 0.10008 0.5
47 2 0.15 0.10008 0.5
49 2 0.2 0.10008 0.5
51 2 0.25 0.10008 0.5
53 2 0.3 0.10008 0.5
55 2 0.35 0.10008 0.5
57 2 0.4 0.10008 0.5
59 2 0.45 0.10008 0.5
61 2 0.5 0.10008 0.5
63 2 0.55 0.10008 0.5
65 2 0.6 0.10008 0.5
67 2 0.65 0.10008 0.5
69 2 0.7 0.10008 0.5
71 2 0.75 0.10008 0.5
73 2 0.8 0.10008 0.5
75 2 0.85 0.10008 0.5
77 2 0.9 0.10008 0.5
79 2 0.95 0.10008 0.5
42 1 0.0255703 0.147409 0.5
44 1 0.0801631 0.144824 0.5
46 1 0.120309 0.142207 0.5
48 1 0.17513 0.1949 0.5
50 1 0.181373 0.141666 0.5
52 1 0.286809 0.147055 0.5
54 1 0.336619 0.143626 0.5
56 1 0.377138 0.136705 0.5
58 1 0.414675 0.151675 0.5
60 1 0.455241 0.165097 0.5
62 1 0.531358 0.140979 0.5
64 1 0.572802 0.140263 0.5
66 1 0.618793 0.140386 0.5
68 1 0.680053 0.143285 0.5
70 1 0.722927 0.138573 0.5
72 1 0.779134 0.160199 0.5
74 1 0.818777 0.13973 0.5
76 1 0.895872 0.151979 0.5
78 1 0.940981 0.147059 0.5
80 1 0.983296 0.166133 0.5
81 1 0.00565624 0.213259 0.5
83 1 0.0419708 0.190196 0.5
85 1 0.0861669 0.222654 0.5
87 1 0.133715 0.189869 0.5
89 1 0.176383 0.24838 0.5
91 1 0.218778 0.219234 0.5
93 1 0.238276 0.176651 0.5
95 1 0.345115 0.219685 0.5
97 1 0.411413 0.201739 0.5
99 1 0.451839 0.213988 0.5
101 1 0.501546 0.170293 0.5
103 1 0.5359 0.197078 0.5
105 1 0.584489 0.183342 0.5
107 1 0.647228 0.188094 0.5
109 1 0.69877 0.186076 0.5
111 1 0.741082 0.186283 0.5
113 1 0.806403 0.190246 0.5
115 1 0.854633 0.162755 0.5
117 1 0.892997 0.207615 0.5
119 1 0.944905 0.199261 0.5
82 1 0.0134411 0.294008 0.5
84 1 0.0462261 0.241554 0.5
86 1 0.0992391 0.270137 0.5
88 1 0.13615 0.238562 0.5
90 1 0.209077 0.280112 0.5
92 1 0.261437 0.227461 0.5
94 1 0.318502 0.188514 0.5
96 1 0.362881 0.267624 0.5
98 1 0.408649 0.25704 0.5
100 1 0.522895 0.294335 0.5
102 1 0.530632 0.247436 0.5
104 1 0.57853 0.255161 0.5
106 1 0.613288 0.225999 0.5
108 1 0.695992 0.230136 0.5
110 1 0.749651 0.231085 0.5
112 1 0.764903 0.27567 0.5
114 1 0.808527 0.241328 0.5
116 1 0.856468 0.231229 0.5
118 1 0.880249 0.267529 0.5
120 1 0.926952 0.243331 0.5
121 1 0.974791 0.251766 0.5
123 1 0.980004 0.319956 0.5
125 1 0.0568451 0.299937 0.5
127 1 0.144103 0.301048 0.5
129 1 0.178052 0.331938 0.5
131 1 0.220242 0.32686 0.5
133 1 0.249208 0.28682 0.5
135 1 0.302673 0.236417 0.5
137 1 0.346073 0.332617 0.5
139 1 0.450707 0.261343 0.5
141 1 0.489998 0.245438 0.5
143 1 0.480139 0.302326 0.5
145 1 0.563843 0.309886 0.5
147 1 0.655335 0.248596 0.5
149 1 0.686909 0.301994 0.5
151 1 0.720081 0.272439 0.5
153 1 0.790976 0.316176 0.5
155 1 0.829605 0.282449 0.5
157 1 0.863654 0.312594 0.5
159 1 0.945529 0.289489 0.5
122 1 0.0169143 0.343718 0.5
124 1 0.101142 0.379042 0.5
126 1 0.107205 0.31862 0.5
128 1 0.139117 0.35392 0.5
130 1 0.201454 0.367236 0.5
132 1 0.280033 0.392463 0.5
134 1 0.260565 0.354324 0.5
136 1 0.288077 0.304982 0.5
138 1 0.38657 0.307464 0.5
140 1 0.439301 0.315023 0.5
142 1 0.53178 0.342841 0.5
144 1 0.603541 0.319149 0.5
146 1 0.619619 0.275696 0.5
148 1 0.641618 0.313801 0.5
150 1 0.7085 0.343101 0.5
152 1 0.74859 0.322153 0.5
154 1 0.791155 0.36598 0.5
156 1 0.83047 0.332879 0.5
158 1 0.906103 0.30637 0.5
160 1 0.958247 0.365273 0.5
161 1 0.0118165 0.389066 0.5
163 1 0.0573266 0.375166 0.5
165 1 0.0472874 0.436347 0.5
167 1 0.164869 0.394501 0.5
169 1 0.238511 0.402326 0.5
171 1 0.336718 0.449581 0.5
173 1 0.303956 0.346528 0.5
175 1 0.381396 0.360977 0.5
177 1 0.4315 0.371821 0.5
179 1 0.4932 0.351621 0.5
181 1 0.506975 0.413816 0.5
183 1 0.546597 0.397694 0.5
185 1 0.562072 0.4432 0.5
187 1 0.594504 0.366883 0.5
189 1 0.671639 0.366919 0.5
191 1 0.724004 0.439009 0.5
193 1 0.741504 0.387909 0.5
195 1 0.869049 0.359062 0.5
197 1 0.923221 0.402422 0.5
199 1 0.915628 0.353445 0.5
162 1 0.00367665 0.437131 0.5
164 1 0.106363 0.47433 0.5
166 1 0.149236 0.460765 0.5
168 1 0.12592 0.421367 0.5
170 1 0.265742 0.435292 0.5
172 1 0.290069 0.473441 0.5
174 1 0.327852 0.390297 0.5
176 1 0.385824 0.41023 0.5
178 1 0.443753 0.455393 0.5
180 1 0.465616 0.40328 0.5
182 1 0.485014 0.459955 0.5
184 1 0.528473 0.475169 0.5
186 1 0.650594 0.436393 0.5
188 1 0.637437 0.391459 0.5
190 1 0.686525 0.413062 0.5
192 1 0.825425 0.389876 0.5
194 1 0.872508 0.412954 0.5
196 1 0.898503 0.451006 0.5
198 1 0.970463 0.408784 0.5
200 1 0.980537 0.473426 0.5
201 1 0.0230634 0.483811 0.5
203 1 0.0634153 0.486987 0.5
205 1 0.13696 0.504098 0.5
207 1 0.186075 0.49376 0.5
209 1 0.199758 0.425042 0.5
211 1 0.239326 0.468192 0.5
213 1 0.377468 0.455374 0.5
215 1 0.363417 0.508641 0.5
217 1 0.400218 0.493508 0.5
219 1 0.461728 0.496539 0.5
221 1 0.564548 0.52562 0.5
223 1 0.588751 0.485933 0.5
225 1 0.60491 0.424657 0.5
227 1 0.683956 0.472449 0.5
229 1 0.754442 0.471436 0.5
231 1 0.785833 0.441363 0.5
233 1 0.827705 0.439198 0.5
235 1 0.835883 0.508034 0.5
237 1 0.938628 0.450494 0.5
239 1 0.930869 0.502339 0.5
202 1 0.970892 0.517269 0.5
204 1 0.0862062 0.530274 0.5
206 1 0.119342 0.555621 0.5
208 1 0.169323 0.543011 0.5
210 1 0.225176 0.521344 0.5
212 1 0.279772 0.527898 0.5
214 1 0.324991 0.497882 0.5
216 1 0.346111 0.5532 0.5
218 1 0.428923 0.527416 0.5
220 1 0.508728 0.523583 0.5
222 1 0.587731 0.565512 0.5
224 1 0.618174 0.521708 0.5
226 1 0.625438 0.475827 0.5
228 1 0.713264 0.506922 0.5
230 1 0.75164 0.548723 0.5
232 1 0.788699 0.49778 0.5
234 1 0.812691 0.545323 0.5
236 1 0.874267 0.546052 0.5
238 1 0.881676 0.497328 0.5
240 1 0.914169 0.544043 0.5
241 1 0.960299 0.570573 0.5
243 1 0.0295293 0.528601 0.5
245 1 0.0879107 0.585901 0.5
247 1 0.134615 0.606614 0.5
249 1 0.217978 0.567204 0.5
251 1 0.262965 0.572113 0.5
253 1 0.310385 0.582877 0.5
255 1 0.353781 0.601051 0.5
257 1 0.453482 0.625781 0.5
259 1 0.43902 0.575668 0.5
261 1 0.470672 0.543081 0.5
263 1 0.592738 0.633197 0.5
265 1 0.623165 0.597005 0.5
267 1 0.661249 0.510034 0.5
269 1 0.669373 0.550869 0.5
271 1 0.800508 0.591894 0.5
273 1 0.85165 0.588852 0.5
275 1 0.858476 0.655434 0.5
277 1 0.886862 0.615391 0.5
279 1 0.934132 0.606484 0.5
242 1 0.00988508 0.621224 0.5
244 1 0.0446037 0.581512 0.5
246 1 0.0477985 0.631321 0.5
248 1 0.186036 0.594843 0.5
250 1 0.220737 0.620424 0.5
252 1 0.26683 0.619675 0.5
254 1 0.322958 0.64729 0.5
256 1 0.393266 0.548427 0.5
258 1 0.511313 0.634452 0.5
260 1 0.501695 0.579529 0.5
262 1 0.545061 0.56234 0.5
264 1 0.552075 0.612749 0.5
266 1 0.604112 0.719492 0.5
268 1 0.634712 0.640841 0.5
270 1 0.712116 0.575716 0.5
272 1 0.75017 0.606959 0.5
274 1 0.787108 0.638539 0.5
276 1 0.906303 0.657111 0.5
278 1 0.948384 0.652463 0.5
280 1 0.98864 0.659523 0.5
281 1 0.968178 0.709725 0.5
283 1 0.029582 0.692691 0.5
285 1 0.0729237 0.670458 0.5
287 1 0.104274 0.641712 0.5
289 1 0.196482 0.676492 0.5
291 1 0.24087 0.660858 0.5
293 1 0.283882 0.666408 0.5
295 1 0.372399 0.641999 0.5
297 1 0.400269 0.592184 0.5
299 1 0.477313 0.663585 0.5
301 1 0.525468 0.69573 0.5
303 1 0.55225 0.658872 0.5
305 1 0.645492 0.722143 0.5
307 1 0.67313 0.673429 0.5
309 1 0.66544 0.600975 0.5
311 1 0.715989 0.632436 0.5
313 1 0.806546 0.710432 0.5
315 1 0.86487 0.703133 0.5
317 1 0.926989 0.696934 0.5
319 1 0.961969 0.754599 0.5
282 1 0.0025583 0.739937 0.5
284 1 0.0465911 0.733613 0.5
286 1 0.0997553 0.703327 0.5
288 1 0.146214 0.649105 0.5
290 1 0.235636 0.738477 0.5
292 1 0.291604 0.709911 0.5
294 1 0.362294 0.739552 0.5
296 1 0.414118 0.650469 0.5
298 1 0.419178 0.695848 0.5
300 1 0.454393 0.762911 0.5
302 1 0.587586 0.678272 0.5
304 1 0.560503 0.735001 0.5
306 1 0.69626 0.807815 0.5
308 1 0.695266 0.739417 0.5
310 1 0.722669 0.678623 0.5
312 1 0.763404 0.677387 0.5
314 1 0.804104 0.763133 0.5
316 1 0.893207 0.733195 0.5
318 1 0.976455 0.80391 0.5
320 1 0.0177112 0.800084 0.5
321 1 0.057887 0.790458 0.5
323 1 0.11414 0.747438 0.5
325 1 0.164817 0.78309 0.5